 TITLE = "sphere_0000"
 VARIABLES = "X","Y","Z","Mx","My","Mz", "SD"
 ZONE T="",  N=7025,  E=37375
 F=FEBLOCK, ET=TETRAHEDRON, VARLOCATION=([7]=CELLCENTERED)
  -0.1836970E-17  -0.1836970E-17  -0.3035050E-02  -0.6038956E-02  -0.8980894E-02  -0.1183068E-01  -0.1455906E-01  -0.1713805E-01  -0.1954117E-01  -0.2174378E-01
  -0.2372327E-01  -0.2545933E-01  -0.2693414E-01  -0.2813256E-01  -0.2904231E-01  -0.2965405E-01  -0.2996150E-01  -0.2996150E-01  -0.2965405E-01  -0.2904231E-01
  -0.2813256E-01  -0.2693414E-01  -0.2545933E-01  -0.2372327E-01  -0.2174378E-01  -0.1954117E-01  -0.1713805E-01  -0.1455906E-01  -0.1183068E-01  -0.8980894E-02
  -0.6038956E-02  -0.3035050E-02   0.1679179E-02  -0.1231384E-02  -0.9202569E-03   0.1680307E-02  -0.8867874E-03  -0.7450409E-02  -0.7450409E-02  -0.1033309E-01
  -0.1311679E-01  -0.1577573E-01  -0.1826027E-01  -0.2265245E-01  -0.2450651E-01  -0.2611596E-01  -0.2611596E-01  -0.2850886E-01  -0.2850886E-01  -0.2927214E-01
  -0.2973321E-01  -0.2973321E-01  -0.2927214E-01  -0.2927214E-01  -0.2850886E-01  -0.2611596E-01  -0.2611596E-01  -0.2265245E-01  -0.2265245E-01  -0.2055720E-01
  -0.1826027E-01  -0.1311679E-01  -0.1033309E-01  -0.1033309E-01  -0.7450409E-02  -0.4394837E-02  -0.4334739E-02  -0.1033309E-01  -0.1311679E-01  -0.1577573E-01
  -0.1826027E-01  -0.2055720E-01  -0.2055720E-01  -0.2265245E-01  -0.2450651E-01  -0.2745103E-01  -0.2745103E-01  -0.2927214E-01  -0.2973321E-01  -0.2988742E-01
  -0.2988742E-01  -0.2973321E-01  -0.2850886E-01  -0.2745103E-01  -0.2745103E-01  -0.2450651E-01  -0.2450651E-01  -0.2055720E-01  -0.1826027E-01  -0.1577573E-01
  -0.1577573E-01  -0.1311679E-01  -0.1231176E-02  -0.7450409E-02  -0.4342155E-02  -0.4394879E-02  -0.5801390E-02  -0.2558318E-02  -0.5802912E-02  -0.5801389E-02
  -0.5801389E-02  -0.2557027E-02  -0.2557094E-02  -0.2557027E-02  -0.1426253E-01  -0.1680712E-01  -0.1918428E-01  -0.2768883E-01  -0.2951157E-01  -0.2951157E-01
  -0.2920526E-01  -0.2331348E-01  -0.2136035E-01  -0.1918428E-01  -0.1680712E-01  -0.1426253E-01  -0.8750278E-02  -0.1156440E-01  -0.8750278E-02  -0.8750278E-02
  -0.1156440E-01  -0.1156440E-01  -0.1426253E-01  -0.1680712E-01  -0.1918428E-01  -0.2136035E-01  -0.2331348E-01  -0.2136035E-01  -0.2331348E-01  -0.2503914E-01
  -0.2649349E-01  -0.2503914E-01  -0.2649349E-01  -0.2768883E-01  -0.2859568E-01  -0.2859568E-01  -0.2920526E-01  -0.2920526E-01  -0.2951157E-01  -0.2951157E-01
  -0.2920526E-01  -0.2859568E-01  -0.2768883E-01  -0.2768883E-01  -0.2859568E-01  -0.2649349E-01  -0.2649349E-01  -0.2503914E-01  -0.2503914E-01  -0.2331348E-01
  -0.2136035E-01  -0.1918428E-01  -0.1680712E-01  -0.1426253E-01  -0.1156440E-01  -0.8750278E-02   0.1804155E-02   0.1575487E-02   0.1813039E-02   0.1575442E-02
  -0.9922706E-02  -0.9922706E-02  -0.9922706E-02  -0.9922706E-02  -0.7084846E-02  -0.3878505E-02  -0.7084846E-02  -0.3878505E-02  -0.7084846E-02  -0.3878505E-02
  -0.7084846E-02  -0.3878505E-02  -0.1263673E-01  -0.1521932E-01  -0.1764079E-01  -0.1987913E-01  -0.2190236E-01  -0.2372557E-01  -0.2528141E-01  -0.2528141E-01
  -0.2659576E-01  -0.2763613E-01  -0.2659576E-01  -0.2763613E-01  -0.2838085E-01  -0.2883456E-01  -0.2898628E-01  -0.2883456E-01  -0.2838085E-01  -0.2838085E-01
  -0.2763613E-01  -0.2528141E-01  -0.2659576E-01  -0.2528141E-01  -0.2372557E-01  -0.2190236E-01  -0.2372557E-01  -0.2190236E-01  -0.1987913E-01  -0.1764079E-01
  -0.1263673E-01  -0.1521932E-01  -0.1263673E-01  -0.1521932E-01  -0.1764079E-01  -0.1987913E-01  -0.2372557E-01  -0.2190236E-01  -0.2838085E-01  -0.2883456E-01
  -0.2883456E-01  -0.2898628E-01  -0.2763613E-01  -0.2659576E-01  -0.1987913E-01  -0.1764079E-01  -0.1263673E-01  -0.1521932E-01   0.4970821E-03   0.3508381E-03
   0.3546741E-03   0.4968740E-03   0.4104667E-02   0.4061235E-02   0.4104849E-02   0.4060292E-02  -0.5122583E-02  -0.5122583E-02  -0.5122583E-02  -0.5122583E-02
  -0.1094326E-01  -0.8210555E-02  -0.1094326E-01  -0.8210555E-02  -0.1094326E-01  -0.8210555E-02  -0.1094326E-01  -0.8210555E-02   0.6700419E-02   0.6700575E-02
  -0.1352153E-01  -0.1596035E-01  -0.1823103E-01  -0.2640883E-01  -0.2816771E-01  -0.2816771E-01  -0.2787107E-01  -0.2219791E-01  -0.2031522E-01  -0.1823103E-01
  -0.1596035E-01  -0.1352153E-01  -0.1352153E-01  -0.1596035E-01  -0.1823103E-01  -0.2031522E-01  -0.2219791E-01  -0.2031522E-01  -0.2219791E-01  -0.2384441E-01
  -0.2525132E-01  -0.2525132E-01  -0.2384441E-01  -0.2640883E-01  -0.2728091E-01  -0.2787107E-01  -0.2728091E-01  -0.2787107E-01  -0.2816771E-01  -0.2816771E-01
  -0.2787107E-01  -0.2728091E-01  -0.2640883E-01  -0.2728091E-01  -0.2640883E-01  -0.2525132E-01  -0.2384441E-01  -0.2525132E-01  -0.2384441E-01  -0.2219791E-01
  -0.2031522E-01  -0.1823103E-01  -0.1596035E-01  -0.1352153E-01  -0.8907631E-03  -0.8907631E-03  -0.8907631E-03  -0.8907631E-03   0.3425366E-02   0.4052285E-02
   0.3426453E-02   0.4052328E-02  -0.1175521E-01  -0.9184798E-02  -0.1175521E-01  -0.9184798E-02  -0.1175521E-01  -0.9184798E-02  -0.1175521E-01  -0.9184798E-02
  -0.6213605E-02  -0.6213605E-02  -0.6213605E-02  -0.6213605E-02  -0.1418710E-01  -0.1646208E-01  -0.1856324E-01  -0.2049920E-01  -0.2219568E-01  -0.2368615E-01
  -0.2368615E-01  -0.2493165E-01  -0.2591384E-01  -0.2493165E-01  -0.2591384E-01  -0.2662560E-01  -0.2706483E-01  -0.2720894E-01  -0.2706483E-01  -0.2662560E-01
  -0.2662560E-01  -0.2591384E-01  -0.2368615E-01  -0.2493165E-01  -0.2368615E-01  -0.2219568E-01  -0.2049920E-01  -0.2219568E-01  -0.2049920E-01  -0.1856324E-01
  -0.1418710E-01  -0.1646208E-01  -0.1418710E-01  -0.1646208E-01  -0.1856324E-01  -0.2049920E-01  -0.2219568E-01  -0.2662560E-01  -0.2706483E-01  -0.2706483E-01
  -0.2720894E-01  -0.2493165E-01  -0.2591384E-01  -0.1856324E-01  -0.1418710E-01  -0.1646208E-01  -0.2148167E-02  -0.2148167E-02  -0.2148167E-02  -0.2148167E-02
   0.2224939E-02   0.2027795E-02   0.2028131E-02   0.2224931E-02   0.6671636E-02   0.5800070E-02   0.6671657E-02   0.5799849E-02  -0.9933135E-02  -0.9933135E-02
  -0.9933135E-02  -0.9933135E-02  -0.1459493E-01  -0.1234830E-01  -0.1668859E-01  -0.2429759E-01  -0.2594952E-01  -0.2594952E-01  -0.2567198E-01  -0.2037881E-01
  -0.1863780E-01  -0.1668859E-01  -0.1234830E-01  -0.1459493E-01  -0.1234830E-01  -0.1459493E-01  -0.1668859E-01  -0.1863780E-01  -0.2037881E-01  -0.1863780E-01
  -0.2037881E-01  -0.2191101E-01  -0.2323150E-01  -0.2191101E-01  -0.2323150E-01  -0.2429759E-01  -0.2511409E-01  -0.2511409E-01  -0.2567198E-01  -0.2567198E-01
  -0.2594952E-01  -0.2594952E-01  -0.2567198E-01  -0.2511409E-01  -0.2429759E-01  -0.2511409E-01  -0.2429759E-01  -0.2323150E-01  -0.2323150E-01  -0.2191101E-01
  -0.2191101E-01  -0.2037881E-01  -0.1863780E-01  -0.1668859E-01  -0.1459493E-01  -0.1234830E-01  -0.7156955E-02  -0.7156955E-02  -0.7156955E-02  -0.7156955E-02
   0.8553552E-02   0.9330663E-02   0.8553610E-02   0.9330685E-02   0.8530631E-03   0.8530631E-03   0.8530631E-03   0.8530631E-03   0.5155686E-02   0.6995491E-02
   0.4987266E-02   0.5155855E-02   0.6995493E-02   0.4987266E-02  -0.3320149E-02  -0.3320149E-02  -0.3320149E-02  -0.3320149E-02   0.7333108E-02   0.7333108E-02
   0.1120833E-01   0.1120832E-01  -0.1266929E-01  -0.1473217E-01  -0.1665861E-01  -0.1840067E-01  -0.1997107E-01  -0.2132309E-01  -0.2132309E-01  -0.2245874E-01
  -0.2335529E-01  -0.2245874E-01  -0.2335529E-01  -0.2401466E-01  -0.2440656E-01  -0.2453958E-01  -0.2440656E-01  -0.2401466E-01  -0.2401466E-01  -0.2335529E-01
  -0.2132309E-01  -0.2245874E-01  -0.2132309E-01  -0.1997107E-01  -0.1840067E-01  -0.1997107E-01  -0.1840067E-01  -0.1665861E-01  -0.1473217E-01  -0.1266929E-01
  -0.1266929E-01  -0.1473217E-01  -0.1665861E-01  -0.1997107E-01  -0.1840067E-01  -0.2401466E-01  -0.2440656E-01  -0.2453958E-01  -0.2440656E-01  -0.2335529E-01
  -0.2245874E-01  -0.1665861E-01  -0.1473217E-01  -0.1266929E-01  -0.1043284E-01  -0.7855085E-02  -0.1043284E-01  -0.7855085E-02  -0.7855085E-02  -0.1043284E-01
  -0.7855085E-02  -0.1043284E-01  -0.4372346E-02  -0.4372346E-02  -0.4372346E-02  -0.4372346E-02  -0.3314499E-03  -0.3314499E-03  -0.3314499E-03  -0.3314499E-03
   0.4005798E-02   0.3792974E-02   0.3792992E-02   0.4005797E-02   0.9326345E-02   0.7563143E-02   0.9326345E-02   0.7563135E-02  -0.8330766E-02  -0.8330766E-02
  -0.8330766E-02  -0.8330766E-02  -0.1070248E-01  -0.1272035E-01  -0.1460045E-01  -0.2136500E-01  -0.2284500E-01  -0.2284500E-01  -0.2260078E-01  -0.1787179E-01
  -0.1631011E-01  -0.1460045E-01  -0.1068576E-01  -0.1272035E-01  -0.1068576E-01  -0.1272035E-01  -0.1460045E-01  -0.1631011E-01  -0.1787179E-01  -0.1631011E-01
  -0.1787179E-01  -0.1925009E-01  -0.2041464E-01  -0.2041464E-01  -0.1925009E-01  -0.2136500E-01  -0.2211187E-01  -0.2260078E-01  -0.2211187E-01  -0.2260078E-01
  -0.2284500E-01  -0.2284500E-01  -0.2260078E-01  -0.2211187E-01  -0.2136500E-01  -0.2211187E-01  -0.2136500E-01  -0.2041464E-01  -0.1925009E-01  -0.2041464E-01
  -0.1925009E-01  -0.1787179E-01  -0.1631011E-01  -0.1460045E-01  -0.1272035E-01  -0.1068576E-01   0.6394222E-02   0.6394222E-02  -0.5282340E-02  -0.5282340E-02
  -0.5282340E-02  -0.5282340E-02   0.1023750E-01   0.1189777E-01   0.1023750E-01   0.1189777E-01   0.2675839E-02   0.2898755E-02   0.2675839E-02   0.2898755E-02
   0.6871305E-02   0.9551448E-02   0.6871320E-02   0.9551448E-02  -0.1436870E-02  -0.1436870E-02  -0.1436870E-02  -0.1436870E-02   0.5246845E-02   0.5246845E-02
  -0.1067014E-01  -0.1249706E-01  -0.1414830E-01  -0.1566639E-01  -0.1702579E-01  -0.1820540E-01  -0.1820540E-01  -0.1917773E-01  -0.1997544E-01  -0.1917773E-01
  -0.1997544E-01  -0.2055217E-01  -0.2088967E-01  -0.2099851E-01  -0.2088967E-01  -0.2055217E-01  -0.2055217E-01  -0.1997544E-01  -0.1820540E-01  -0.1917773E-01
  -0.1820540E-01  -0.1702579E-01  -0.1566639E-01  -0.1702579E-01  -0.1566639E-01  -0.1414830E-01  -0.1249706E-01  -0.1067014E-01  -0.1065568E-01  -0.1249706E-01
  -0.1414830E-01  -0.1566639E-01  -0.1702579E-01  -0.2055217E-01  -0.2088967E-01  -0.2099851E-01  -0.2088967E-01  -0.1997544E-01  -0.1917773E-01  -0.1414830E-01
  -0.1249706E-01  -0.1067014E-01  -0.8520761E-02  -0.8520761E-02  -0.8520761E-02  -0.8520761E-02   0.9772877E-02   0.9772877E-02   0.1374349E-01   0.1288191E-01
   0.1288191E-01   0.1374349E-01  -0.5944405E-02  -0.5944405E-02  -0.5944405E-02  -0.5944405E-02  -0.2477988E-02  -0.2477988E-02  -0.2477988E-02  -0.2477988E-02
   0.1732378E-02   0.1546806E-02   0.1732378E-02   0.1546806E-02   0.5601119E-02   0.5601120E-02   0.1185047E-01   0.9319099E-02   0.1185047E-01   0.9319098E-02
   0.1536896E-01   0.1536896E-01  -0.8433875E-02  -0.1036988E-01  -0.1195182E-01  -0.1764675E-01  -0.1889450E-01  -0.1889450E-01  -0.1886434E-01  -0.1483970E-01
  -0.1339886E-01  -0.1198859E-01  -0.1033915E-01  -0.8433875E-02  -0.8433875E-02  -0.1036988E-01  -0.1196789E-01  -0.1339886E-01  -0.1484897E-01  -0.1339886E-01
  -0.1485154E-01  -0.1585427E-01  -0.1683117E-01  -0.1683117E-01  -0.1585427E-01  -0.1764675E-01  -0.1826698E-01  -0.1886458E-01  -0.1826698E-01  -0.1886458E-01
  -0.1889450E-01  -0.1889450E-01  -0.1886458E-01  -0.1826698E-01  -0.1764675E-01  -0.1826698E-01  -0.1764675E-01  -0.1683117E-01  -0.1683117E-01  -0.1585427E-01
  -0.1585427E-01  -0.1483985E-01  -0.1339886E-01  -0.1198968E-01  -0.8433875E-02  -0.1033902E-01   0.4019717E-02   0.4019718E-02  -0.6368455E-02  -0.6368455E-02
  -0.6368455E-02  -0.6368455E-02   0.8857098E-02   0.8857098E-02  -0.3369677E-02  -0.3313041E-02  -0.3369677E-02  -0.3313068E-02   0.1195961E-01   0.1434320E-01
   0.1195961E-01   0.1434320E-01   0.4528678E-02   0.4528678E-02   0.8630570E-02   0.1201935E-01   0.8630572E-02   0.1201935E-01   0.4787966E-03   0.6387339E-03
   0.4787966E-03   0.6387335E-03  -0.1293054E-01  -0.1677234E-01  -0.1677234E-01  -0.1320228E-01  -0.1318552E-01  -0.1292114E-01  -0.1676654E-01  -0.1677234E-01
   0.2901591E-02   0.2901572E-02  -0.7966253E-02  -0.1029727E-01  -0.1439052E-01  -0.1439886E-01  -0.1577169E-01  -0.1575997E-01  -0.1659354E-01  -0.1573732E-01
  -0.1454312E-01  -0.1427815E-01  -0.1089786E-01  -0.8177242E-02  -0.7950897E-02  -0.1027770E-01  -0.1657368E-01  -0.1572642E-01  -0.1083892E-01  -0.8204579E-02
   0.7655484E-02   0.7655484E-02  -0.6515602E-02  -0.6514423E-02  -0.6514436E-02  -0.6521166E-02   0.1216162E-01   0.1216162E-01   0.1614552E-01   0.1455147E-01
   0.1455147E-01   0.1614552E-01  -0.4004677E-02  -0.4004677E-02  -0.3962686E-02  -0.3962911E-02  -0.3763113E-03  -0.5633028E-03  -0.3762582E-03  -0.5633028E-03
   0.3443828E-02   0.3443828E-02   0.7441632E-02   0.7441632E-02   0.1426110E-01   0.1106751E-01   0.1426110E-01   0.1106751E-01  -0.5438909E-02  -0.8336740E-02
  -0.1324157E-01  -0.5309239E-02  -0.7512818E-02  -0.5434999E-02  -0.8449354E-02  -0.1314870E-01  -0.1323715E-01  -0.1316942E-01  -0.7736209E-02  -0.5392433E-02
   0.1865916E-02   0.1865962E-02  -0.1444589E-01  -0.1435201E-01  -0.1157679E-01  -0.1112287E-01  -0.1165750E-01  -0.1441141E-01  -0.1443343E-01  -0.1161007E-01
   0.1699269E-01   0.1772787E-01   0.1699269E-01   0.1772787E-01   0.6433732E-02   0.6433768E-02  -0.4403131E-02  -0.4395619E-02  -0.4403131E-02  -0.4403131E-02
   0.1124925E-01   0.1124925E-01  -0.1438226E-02  -0.1304670E-02  -0.1438226E-02  -0.1305018E-02   0.1365041E-01   0.1666039E-01   0.1365041E-01   0.1666039E-01
   0.6360870E-02   0.6360878E-02   0.1042621E-01   0.1436270E-01   0.1042621E-01   0.1436270E-01   0.2403802E-02   0.2403802E-02   0.1928988E-01   0.1928988E-01
  -0.1213781E-01   0.9788186E-03   0.9797309E-03  -0.2560600E-02  -0.1020277E-01  -0.1155976E-01  -0.1037493E-01  -0.8276130E-02  -0.2560600E-02  -0.2560600E-02
  -0.1041087E-01  -0.2560600E-02   0.5294695E-02   0.5294030E-02  -0.1033481E-01  -0.1024175E-01   0.1003095E-01   0.1003095E-01   0.1443476E-01   0.1443476E-01
   0.1840885E-01   0.1619858E-01   0.1619858E-01   0.1840885E-01  -0.2060963E-02  -0.2061585E-02  -0.1910886E-02  -0.1914112E-02   0.1360974E-02   0.1360974E-02
   0.5322866E-02   0.5322853E-02   0.9261480E-02   0.9261477E-02   0.1653317E-01   0.1281535E-01   0.1653317E-01   0.1281535E-01  -0.5591892E-02  -0.5708258E-02
  -0.5297508E-02  -0.5708258E-02   0.2236531E-03   0.3137363E-03  -0.2513851E-02   0.2308109E-03  -0.8735204E-02   0.2171977E-03  -0.2929281E-02  -0.5922491E-02
  -0.4678752E-02  -0.8064103E-02  -0.2929281E-02  -0.5886915E-02  -0.8299323E-02  -0.5400715E-02  -0.2992793E-02   0.4239973E-02   0.4260567E-02  -0.1206580E-01
  -0.1248728E-01  -0.1050477E-01  -0.8840423E-02  -0.1195717E-01  -0.1194663E-01   0.1858091E-01   0.1993891E-01   0.1858091E-01   0.1993891E-01   0.8768648E-02
   0.8768682E-02   0.1351218E-01   0.1351218E-01   0.5363152E-03   0.5363682E-03   0.1536507E-01   0.1882395E-01   0.1536507E-01   0.1882395E-01   0.7949861E-02
   0.7949749E-02   0.1208672E-01   0.1656482E-01   0.1208671E-01   0.1656482E-01   0.4404617E-02   0.4404867E-02  -0.9383620E-02  -0.1024279E-01  -0.5586369E-02
  -0.6255804E-02   0.3041015E-02  -0.1690244E-02   0.3046556E-02   0.2079862E-01   0.2141622E-01   0.2079862E-01   0.2141622E-01  -0.9663125E-02  -0.9753717E-02
   0.3384217E-02   0.3310874E-02  -0.2179439E-03  -0.7294943E-02  -0.9791222E-02  -0.9110495E-02  -0.7771757E-02  -0.5582904E-02  -0.7687799E-02  -0.1598131E-03
  -0.9265185E-02  -0.1598131E-03   0.7623355E-02   0.7623355E-02   0.1227724E-01   0.1227724E-01   0.1655392E-01   0.1655392E-01   0.2050170E-01   0.1783393E-01
   0.1783393E-01   0.2050170E-01   0.3291584E-02   0.3291719E-02   0.7274868E-02   0.7274502E-02   0.1864921E-01   0.1452281E-01   0.1009119E-01   0.1864921E-01
   0.1452281E-01   0.1009122E-01  -0.3209333E-02  -0.3248581E-02  -0.3248581E-02   0.1183243E-03   0.1011766E-01   0.1011577E-01  -0.5097746E-02  -0.6086419E-02
  -0.6882302E-02  -0.7333156E-02   0.2282153E-01   0.2282153E-01   0.5935105E-02   0.5930475E-02  -0.7614762E-02  -0.6903175E-02   0.2629962E-02   0.2937846E-02
   0.4771814E-03   0.2629962E-02  -0.6888942E-02  -0.5792210E-02   0.2575691E-02  -0.4593109E-03  -0.3397376E-02  -0.5396174E-02  -0.4593109E-03  -0.3333070E-02
  -0.2925763E-02  -0.6111868E-03   0.6542962E-02   0.6558704E-02   0.2012871E-01   0.2196395E-01   0.2012871E-01   0.2196395E-01   0.1098258E-01   0.1098258E-01
   0.1561173E-01   0.1561173E-01   0.1705419E-01   0.2081589E-01   0.1705419E-01   0.2081589E-01   0.1243875E-01   0.1434573E-01   0.1859483E-01   0.1243846E-01
   0.1434570E-01   0.1859483E-01  -0.7771782E-02  -0.2748300E-02   0.1462278E-01   0.1462281E-01  -0.3966610E-02  -0.4056438E-02  -0.4616729E-02  -0.4714921E-02
  -0.3959621E-02   0.1251993E-01   0.1252012E-01  -0.3376552E-02  -0.3654812E-02   0.5381941E-02   0.3775410E-03   0.5464699E-02   0.2222840E-01   0.2334897E-01
   0.2222840E-01   0.2334897E-01   0.5629130E-02   0.5650126E-02   0.2169603E-02  -0.3067085E-02   0.2308234E-02  -0.6482822E-02   0.2308234E-02   0.9834230E-02
   0.9834230E-02   0.1435837E-01   0.1435837E-01   0.1849272E-01   0.1849271E-01   0.2240253E-01   0.1948553E-01   0.1948553E-01   0.2240253E-01   0.8412272E-02
   0.8415621E-02   0.2058424E-01   0.1659074E-01   0.2058424E-01   0.1659074E-01  -0.7339315E-03  -0.7276704E-03  -0.7292238E-03   0.2822720E-02   0.5571124E-02
  -0.1398014E-02  -0.1961574E-02  -0.3431672E-02  -0.1543944E-02   0.1421687E-01   0.1421413E-01   0.1114797E-01   0.1113234E-01  -0.2651527E-02   0.2411308E-01
   0.2461228E-01   0.2411308E-01   0.2461228E-01   0.8364837E-02   0.8315370E-02   0.5077112E-02   0.3195734E-02   0.5058321E-02  -0.2670778E-02   0.4946498E-02
   0.2061510E-02  -0.7962437E-03   0.2061510E-02  -0.7683004E-03  -0.5899766E-03   0.1824594E-02   0.8738844E-02   0.8727025E-02   0.2157658E-01   0.2378907E-01
   0.2157658E-01   0.2378907E-01   0.1301818E-01   0.1301818E-01   0.1751963E-01   0.1751970E-01   0.1888798E-01   0.2261607E-01   0.1888798E-01   0.2261607E-01
   0.1642087E-01   0.2044037E-01   0.1642086E-01   0.2044037E-01  -0.4990284E-02  -0.1213993E-02   0.2086943E-01   0.2086943E-01   0.1200452E-04   0.2576122E-01
   0.2576122E-01   0.1077652E-01   0.1083572E-01  -0.1582082E-02   0.1286988E-03   0.5913339E-03   0.1387828E-02   0.6075006E-02   0.1646779E-01   0.1646814E-01
   0.7790161E-02   0.1706676E-02   0.3346722E-02   0.7891940E-02   0.2352226E-01   0.2505949E-01   0.2352226E-01   0.2505949E-01   0.7914423E-02   0.7948110E-02
   0.4585816E-02  -0.5034240E-03   0.4812924E-02   0.4812924E-02   0.1185239E-01   0.1185239E-01   0.1623035E-01   0.1623035E-01   0.2023182E-01   0.2023172E-01
   0.2410775E-01   0.2410775E-01   0.2232247E-01   0.1860688E-01   0.2232247E-01   0.1860688E-01   0.1683151E-02   0.1838014E-02   0.1836719E-02   0.4629338E-02
   0.6080012E-02   0.8885586E-02   0.3851735E-02   0.3408314E-02   0.2394579E-02   0.2689359E-02   0.1015574E-01   0.1007860E-01   0.3021359E-02   0.2036511E-01
   0.2036511E-01  -0.8885966E-03   0.1615061E-01   0.1614455E-01   0.2524631E-01   0.2617960E-01   0.2524631E-01   0.2617960E-01   0.7546238E-02   0.7448445E-02
   0.7329818E-02   0.4608220E-02   0.1714008E-02   0.4690330E-02   0.1848045E-02   0.4279875E-02   0.1070699E-01   0.1067735E-01   0.2539611E-01   0.2539611E-01
   0.1486773E-01   0.1486773E-01   0.1922090E-01   0.1922177E-01   0.2420526E-01   0.2420526E-01   0.1828436E-01   0.2207603E-01   0.1828432E-01   0.2207603E-01
   0.2268592E-01   0.2268592E-01   0.1352881E-02   0.1350871E-01   0.1348021E-01   0.1003908E-01   0.1513075E-01   0.1515050E-01   0.2001640E-01   0.2001642E-01
   0.4443040E-02   0.9634018E-02   0.9678368E-02   0.4846917E-02   0.4919725E-02   0.5469781E-02   0.6479116E-02   0.5876928E-02   0.1189755E-01   0.7676292E-02
   0.6018978E-02   0.2198025E-01   0.2198025E-01   0.2672443E-01   0.2715666E-01   0.2672443E-01   0.2715666E-01   0.1238530E-01   0.1242638E-01   0.1063192E-02
   0.1828385E-01   0.1828432E-01   0.2446136E-01   0.2653317E-01   0.2446136E-01   0.2653317E-01   0.7007707E-02   0.7442223E-02   0.7187065E-02   0.1359338E-01
   0.1364148E-01   0.1789636E-01   0.1789636E-01   0.2175230E-01   0.2175381E-01   0.2559090E-01   0.2559090E-01   0.2384425E-01   0.2384425E-01   0.4380114E-02
   0.4287221E-02   0.8509470E-02   0.2794770E-01   0.2794770E-01   0.1026451E-01   0.8981740E-02   0.1464965E-01   0.8985904E-02   0.8528646E-02   0.7912461E-02
   0.7697932E-02   0.7290308E-02   0.7487536E-02   0.8903625E-02   0.1250799E-01   0.1254130E-01   0.7191125E-02   0.2011224E-01   0.2196687E-01   0.2011064E-01
   0.2196683E-01   0.9915409E-02   0.1110037E-01   0.1394080E-02   0.1788721E-01   0.1787395E-01   0.2605211E-01   0.2749474E-01   0.2605211E-01   0.2749474E-01
   0.4482686E-02   0.1255541E-01   0.2676988E-01   0.2676988E-01   0.1648818E-01   0.1645877E-01   0.2069659E-01   0.2067677E-01   0.2556569E-01   0.2556569E-01
   0.2349261E-01   0.2349261E-01   0.6764070E-02   0.2348115E-01   0.2348115E-01   0.3627218E-02   0.1004613E-01   0.2384004E-01   0.1964566E-01   0.2205405E-01
   0.2384007E-01   0.1965371E-01   0.2205418E-01   0.6278992E-02   0.8677381E-02   0.1000737E-01   0.1012024E-01   0.1054964E-01   0.1118287E-01   0.1695512E-01
   0.9906748E-02   0.1285276E-01   0.1152133E-01   0.6397562E-02   0.1196448E-01   0.1713488E-01   0.1716969E-01   0.1394428E-01   0.2737914E-01   0.2832641E-01
   0.2737914E-01   0.2832641E-01   0.3559090E-02   0.2512246E-01   0.2775488E-01   0.2512246E-01   0.2775488E-01   0.1520149E-01   0.1916152E-01   0.1931813E-01
   0.2302530E-01   0.2304383E-01   0.2683388E-01   0.2683388E-01   0.2513861E-01   0.2513862E-01   0.1493039E-01   0.1497286E-01   0.1125165E-01   0.1113608E-01
   0.1637853E-01   0.1638943E-01   0.1559826E-01   0.1412278E-01   0.1270607E-01   0.1951199E-01   0.1362324E-01   0.1318378E-01   0.1270002E-01   0.1240941E-01
   0.1230092E-01   0.7870937E-02   0.1851272E-01   0.2152471E-01   0.2551615E-01   0.2398233E-01   0.1849738E-01   0.2150876E-01   0.2551616E-01   0.2398231E-01
   0.1281799E-01   0.2840855E-01   0.2890675E-01   0.2840855E-01   0.2890675E-01   0.1363731E-01   0.2657956E-01   0.2852738E-01   0.2657956E-01   0.2852738E-01
   0.1409406E-01   0.2788670E-01   0.2788670E-01   0.1788124E-01   0.2192606E-01   0.2178613E-01   0.2668834E-01   0.2668831E-01   0.2467358E-01   0.2467337E-01
   0.1115555E-01   0.1313763E-01   0.2923326E-01   0.2916075E-01   0.2923326E-01   0.2916086E-01   0.1552550E-01   0.2680424E-01   0.2542030E-01   0.2680432E-01
   0.2542030E-01   0.1500148E-01   0.1456179E-01   0.1504907E-01   0.1540796E-01   0.1549612E-01   0.1533053E-01   0.1671178E-01   0.1785710E-01   0.1795469E-01
   0.1059240E-01   0.2773598E-01   0.2773601E-01   0.2871469E-01   0.2871469E-01   0.1658671E-01   0.2049216E-01   0.2408864E-01   0.2408678E-01   0.2783072E-01
   0.2783072E-01   0.2619845E-01   0.2619881E-01   0.1789426E-01   0.1214457E-01   0.1761274E-01   0.1892782E-01   0.1790216E-01   0.1702010E-01   0.2780627E-01
   0.2664966E-01   0.2780589E-01   0.2664730E-01   0.1799239E-01   0.1746325E-01   0.2938740E-01   0.2938737E-01   0.1464572E-01   0.2017615E-01   0.2026197E-01
   0.2346014E-01   0.2022776E-01   0.2345495E-01   0.2858958E-01   0.2858958E-01   0.2874596E-01   0.2874596E-01   0.1912339E-01   0.2291982E-01   0.2314903E-01
   0.2756367E-01   0.2756387E-01   0.2560494E-01   0.2560375E-01   0.2146515E-01   0.1540401E-01   0.2954355E-01   0.2954356E-01   0.2225671E-01   0.2930066E-01
   0.2930066E-01   0.2012954E-01   0.2847758E-01   0.2750621E-01   0.2847756E-01   0.2750635E-01   0.1919853E-01   0.1928156E-01   0.2115605E-01   0.2000198E-01
   0.2975115E-01   0.2964228E-01   0.2915254E-01   0.2975111E-01   0.2915302E-01   0.2964309E-01   0.2503973E-01   0.2505488E-01   0.1709593E-01   0.1991473E-01
   0.1438376E-01   0.1655485E-01   0.2011842E-01   0.2148630E-01   0.2496625E-01   0.2486636E-01   0.2856128E-01   0.2856128E-01   0.2701326E-01   0.2700679E-01
   0.2196242E-01   0.2200095E-01   0.2190346E-01   0.2210271E-01   0.1861333E-01   0.2949015E-01   0.2949013E-01   0.2182275E-01   0.2118654E-01   0.2118625E-01
   0.2800799E-01   0.2883063E-01   0.2802619E-01   0.2883063E-01   0.2228433E-01   0.2897668E-01   0.2897687E-01   0.2307497E-01   0.1975140E-01   0.2621727E-01
   0.2615498E-01   0.2971301E-01   0.2971295E-01   0.2366772E-01   0.2366166E-01   0.2364596E-01   0.2382015E-01   0.2814440E-01   0.2814914E-01   0.2625643E-01
   0.2627853E-01   0.2990333E-01   0.2990326E-01   0.2723520E-01   0.2729300E-01   0.2312381E-01   0.2360794E-01   0.2985546E-01   0.2985544E-01   0.2488248E-01
   0.2406333E-01   0.2684734E-01   0.2667260E-01   0.2480057E-01   0.2510067E-01   0.2558877E-01   0.2996950E-01   0.2996944E-01   0.2555804E-01   0.2601309E-01
  -0.1592307E-01  -0.1409329E-01  -0.1410227E-01  -0.1766509E-01  -0.1582998E-01  -0.1758458E-01  -0.1591137E-01  -0.1385184E-01  -0.1213144E-01  -0.1229864E-01
  -0.1383082E-01  -0.1235648E-01  -0.1942317E-01  -0.1747259E-01  -0.1930627E-01  -0.1549836E-01  -0.1898231E-01  -0.1724281E-01  -0.1559360E-01  -0.1183430E-01
  -0.1336136E-01  -0.1015414E-01  -0.1001863E-01  -0.1045170E-01  -0.1188226E-01  -0.1030737E-01  -0.2087755E-01  -0.1899094E-01  -0.2074567E-01  -0.1705257E-01
  -0.2075300E-01  -0.1493263E-01  -0.2063859E-01  -0.1855118E-01  -0.1662781E-01  -0.1462420E-01  -0.1113160E-01  -0.9447178E-02  -0.1265623E-01  -0.8153570E-02
  -0.8493627E-02  -0.7639424E-02  -0.8265489E-02  -0.1074924E-01  -0.1268866E-01  -0.8537023E-02  -0.2227935E-01  -0.2226541E-01  -0.2033301E-01  -0.1845546E-01
  -0.2201397E-01  -0.1638089E-01  -0.2199253E-01  -0.1413771E-01  -0.1994584E-01  -0.2143312E-01  -0.1775247E-01  -0.1549466E-01  -0.1323249E-01  -0.8670131E-02
  -0.1052116E-01  -0.6905762E-02  -0.1206572E-01  -0.5936640E-02  -0.6473094E-02  -0.6507153E-02  -0.5391425E-02  -0.6250549E-02  -0.1033495E-01  -0.7836249E-02
  -0.5716260E-02  -0.2358711E-01  -0.2348311E-01  -0.2343246E-01  -0.1983518E-01  -0.2151453E-01  -0.1778978E-01  -0.2309925E-01  -0.1552368E-01  -0.2300120E-01
  -0.1345941E-01  -0.2050465E-01  -0.1902617E-01  -0.2228338E-01  -0.1701798E-01  -0.1467584E-01  -0.1193482E-01  -0.7714446E-02  -0.5988462E-02  -0.9235024E-02
  -0.4247738E-02  -0.1069088E-01  -0.4056688E-02  -0.3663884E-02  -0.4581036E-02  -0.2544776E-02  -0.3779998E-02  -0.7587605E-02  -0.5680926E-02  -0.2465996E-01
  -0.2466528E-01  -0.2443883E-01  -0.2435102E-01  -0.1889944E-01  -0.2101798E-01  -0.2275905E-01  -0.1679129E-01  -0.2385512E-01  -0.1462462E-01  -0.2376359E-01
  -0.1198955E-01  -0.2130399E-01  -0.1947323E-01  -0.2290761E-01  -0.8694658E-02  -0.1463355E-02  -0.2734028E-02  -0.1601119E-01  -0.1332068E-01  -0.1063475E-01
  -0.6772816E-02  -0.4921728E-02  -0.3228354E-02  -0.8113381E-02  -0.1563760E-02  -0.9520374E-02  -0.1556337E-02  -0.2258699E-02  -0.1017986E-02   0.2454562E-03
  -0.1147641E-02  -0.5065170E-02  -0.2565118E-01  -0.2547045E-01  -0.2553114E-01  -0.2518350E-01  -0.2501842E-01  -0.1783251E-01  -0.1984831E-01  -0.2147131E-01
  -0.2324783E-01  -0.1563757E-01  -0.2459551E-01  -0.1327758E-01  -0.2428913E-01  -0.1077978E-01  -0.2177635E-01  -0.2004811E-01  -0.1792421E-01  -0.2319830E-01
  -0.7781096E-02   0.4845768E-03   0.1064355E-02  -0.1632339E-02  -0.1662956E-01  -0.1158194E-01  -0.1409639E-01  -0.9179715E-02  -0.5394918E-02  -0.3733800E-02
  -0.2106768E-02  -0.5174934E-03  -0.6871583E-02   0.1263292E-02  -0.8139100E-02   0.4482942E-03   0.1068569E-02   0.2258666E-02   0.3298771E-02   0.1449040E-02
  -0.5652734E-02   0.1068603E-02  -0.2634268E-01  -0.2636316E-01  -0.2601787E-01  -0.2614783E-01  -0.2569130E-01  -0.2542249E-01  -0.1865612E-01  -0.1658189E-01
  -0.2057632E-01  -0.2226895E-01  -0.2370519E-01  -0.1431696E-01  -0.2494607E-01  -0.1190196E-01  -0.2455408E-01  -0.9358020E-02  -0.1985877E-01  -0.2201521E-01
  -0.1856469E-01  -0.2341420E-01  -0.2993418E-02  -0.6551565E-02   0.3446232E-02   0.3627650E-02   0.2466524E-03  -0.1176609E-01  -0.1004016E-01  -0.1465702E-01
  -0.1664322E-01  -0.7728981E-02  -0.2444308E-02  -0.4117322E-02  -0.1033612E-02   0.6673402E-03   0.2317259E-02  -0.5448885E-02   0.4298632E-02  -0.6727369E-02
   0.3446954E-02   0.4414272E-02   0.5471457E-02   0.6589401E-02   0.4312574E-02  -0.3818983E-02   0.3880552E-02  -0.2692241E-01  -0.2676027E-01  -0.2684524E-01
  -0.2629431E-01  -0.2649624E-01  -0.2588154E-01  -0.2541480E-01  -0.1928518E-01  -0.1731959E-01  -0.1516991E-01  -0.2105702E-01  -0.2261491E-01  -0.2393468E-01
  -0.1286433E-01  -0.2501612E-01  -0.1042210E-01  -0.2455408E-01  -0.7866708E-02  -0.2010155E-01  -0.2179021E-01  -0.2315573E-01  -0.1234647E-02  -0.4823383E-02
   0.6239045E-02   0.5875965E-02   0.6596873E-02   0.1451472E-02   0.2991856E-02  -0.8992572E-02  -0.1080560E-01  -0.1325373E-01  -0.1621277E-01  -0.1673409E-01
  -0.1864137E-01  -0.5694826E-02  -0.1217645E-02  -0.6016513E-04  -0.2492110E-02   0.2063076E-02   0.3463843E-02   0.5380678E-02  -0.3864819E-02   0.7608988E-02
  -0.5118016E-02   0.6569094E-02   0.7254444E-02   0.8928497E-02   0.9826129E-02   0.7306186E-02  -0.2824613E-02   0.6291687E-02  -0.2726655E-01  -0.2720391E-01
  -0.2690038E-01  -0.2705679E-01  -0.2629431E-01  -0.2657677E-01  -0.2583775E-01  -0.2542249E-01  -0.1968371E-01  -0.1786852E-01  -0.1583865E-01  -0.1365941E-01
  -0.2131952E-01  -0.2272685E-01  -0.2390993E-01  -0.1133654E-01  -0.2484699E-01  -0.8848217E-02  -0.2428913E-01  -0.6237685E-02  -0.2047787E-01  -0.2179947E-01
  -0.2290761E-01  -0.4137077E-03  -0.2674168E-02   0.8378702E-02   0.8679547E-02   0.9436900E-02   0.4184335E-02   0.2416633E-02   0.5619570E-02  -0.8479983E-02
  -0.9394323E-02  -0.1198708E-01  -0.1456773E-01  -0.1826932E-01  -0.4558191E-02   0.2245424E-02  -0.9429004E-03   0.4948792E-02   0.8149185E-02  -0.2225723E-02
   0.1038646E-01  -0.3395461E-02   0.1011943E-01   0.1113256E-01   0.1193781E-01   0.1252828E-01   0.1048315E-01   0.8012363E-02  -0.2733849E-01  -0.2740747E-01
  -0.2720391E-01  -0.2676027E-01  -0.2699669E-01  -0.2601787E-01  -0.2638974E-01  -0.2552226E-01  -0.2501842E-01  -0.1816964E-01  -0.1985570E-01  -0.1629471E-01
  -0.1390480E-01  -0.1182008E-01  -0.2133653E-01  -0.2248748E-01  -0.2348700E-01  -0.9599918E-02  -0.2471197E-01  -0.7218948E-02  -0.2376359E-01  -0.4470839E-02