 TITLE = "myhyst"
 VARIABLES = "X","Y","Z","Mx","My","Mz", "SD"
 ZONE T="400.0000 mT",  N=70,  E=200
 F=FEBLOCK, ET=TETRAHEDRON, VARLOCATION=([7]=CELLCENTERED)
   0.1000000E-01   0.1000000E-01  -0.1000000E-01  -0.1000000E-01   0.1000000E-01   0.1000000E-01  -0.1000000E-01  -0.1000000E-01   0.1000000E-01   0.1000000E-01
   0.3333333E-02  -0.3333333E-02  -0.1000000E-01  -0.1000000E-01  -0.3333333E-02   0.3333333E-02   0.1000000E-01   0.1000000E-01   0.3333333E-02  -0.3333333E-02
  -0.1000000E-01  -0.1000000E-01  -0.3333333E-02   0.3333333E-02  -0.1000000E-01  -0.1000000E-01   0.1000000E-01   0.1000000E-01  -0.1000000E-01  -0.1000000E-01
   0.1000000E-01   0.1000000E-01   0.4312450E-02  -0.5843607E-03  -0.4168719E-02   0.9643477E-03   0.4312538E-02   0.9566670E-03  -0.4147430E-02  -0.6069310E-03
  -0.4007696E-02  -0.7295136E-03   0.4041509E-02   0.1026758E-02  -0.1000000E-01  -0.1000000E-01  -0.1000000E-01  -0.1000000E-01   0.4509543E-02   0.9788205E-03
  -0.4329892E-02  -0.6232163E-03   0.1000000E-01   0.1000000E-01   0.1000000E-01   0.1000000E-01   0.5213617E-02   0.1602922E-02   0.4779850E-02  -0.3964916E-02
  -0.4315823E-02  -0.2086411E-03  -0.4984901E-02   0.5350952E-02   0.1481856E-02  -0.4852896E-02   0.5595223E-02   0.3609458E-03   0.6148593E-02  -0.6963372E-02
  -0.1000000E-01   0.1000000E-01   0.1000000E-01  -0.1000000E-01   0.1000000E-01  -0.1000000E-01  -0.1000000E-01   0.1000000E-01  -0.3333333E-02   0.3333333E-02
   0.1000000E-01   0.1000000E-01   0.3333333E-02  -0.3333333E-02  -0.1000000E-01  -0.1000000E-01  -0.3333333E-02   0.3333333E-02  -0.1000000E-01  -0.1000000E-01
   0.3333333E-02  -0.3333333E-02   0.1000000E-01   0.1000000E-01  -0.1000000E-01  -0.1000000E-01  -0.1000000E-01  -0.1000000E-01   0.1000000E-01   0.1000000E-01
   0.1000000E-01   0.1000000E-01   0.8567235E-03   0.4074693E-02  -0.7351317E-03  -0.3994038E-02   0.8552298E-03  -0.4004871E-02  -0.7305405E-03   0.4041166E-02
  -0.1000000E-01  -0.1000000E-01  -0.1000000E-01  -0.1000000E-01   0.4509543E-02   0.9788205E-03  -0.4329892E-02  -0.6232163E-03   0.1000000E-01   0.1000000E-01
   0.1000000E-01   0.1000000E-01  -0.4007696E-02  -0.7295136E-03   0.4041509E-02   0.1026758E-02   0.5337337E-02   0.9957191E-03  -0.4556064E-02  -0.4193990E-02
   0.2942672E-02  -0.4022461E-02  -0.4798404E-02  -0.4469386E-02  -0.4330581E-04   0.3128553E-02   0.4826370E-02   0.5514122E-02   0.2429063E-03   0.9500169E-05
   0.1000000E-01   0.1000000E-01   0.1000000E-01   0.1000000E-01  -0.1000000E-01  -0.1000000E-01  -0.1000000E-01  -0.1000000E-01   0.1000000E-01   0.1000000E-01
   0.1000000E-01   0.1000000E-01   0.1000000E-01   0.1000000E-01   0.1000000E-01   0.1000000E-01  -0.1000000E-01  -0.1000000E-01  -0.1000000E-01  -0.1000000E-01
  -0.1000000E-01  -0.1000000E-01  -0.1000000E-01  -0.1000000E-01   0.3333333E-02  -0.3333333E-02  -0.3333333E-02   0.3333333E-02  -0.3333333E-02   0.3333333E-02
   0.3333333E-02  -0.3333333E-02   0.1000000E-01   0.1000000E-01   0.1000000E-01   0.1000000E-01  -0.1000000E-01  -0.1000000E-01  -0.1000000E-01  -0.1000000E-01
   0.9515943E-03  -0.4147388E-02  -0.6043859E-03   0.4363531E-02   0.7360698E-03  -0.4027546E-02  -0.1133151E-02   0.3874240E-02   0.7360698E-03  -0.4027546E-02
  -0.1133151E-02   0.3874240E-02   0.9515943E-03  -0.4147388E-02  -0.6043859E-03   0.4363531E-02   0.4376741E-02   0.3716066E-02   0.3936044E-02   0.4349361E-02
   0.3375720E-02  -0.1125857E-02  -0.5395255E-02  -0.4452750E-02  -0.3865597E-02  -0.4084940E-02  -0.4085607E-02  -0.1010354E-02   0.9495220E-03  -0.9249566E-03
   0.7414135E+00   0.7417507E+00   0.7443075E+00   0.7447384E+00   0.7468238E+00   0.7458774E+00   0.7412982E+00   0.7419493E+00   0.7416018E+00   0.7417894E+00
   0.7470037E+00   0.7467560E+00   0.7440814E+00   0.7444640E+00   0.7468072E+00   0.7475833E+00   0.7454971E+00   0.7465596E+00   0.7474989E+00   0.7460936E+00
   0.7418348E+00   0.7414406E+00   0.7479928E+00   0.7479857E+00   0.7418128E+00   0.7377765E+00   0.7426584E+00   0.7372628E+00   0.7375077E+00   0.7408260E+00
   0.7384961E+00   0.7430842E+00   0.7467750E+00   0.7490123E+00   0.7480649E+00   0.7494404E+00   0.7490597E+00   0.7500471E+00   0.7479225E+00   0.7510413E+00
   0.7423806E+00   0.7459999E+00   0.7429742E+00   0.7450560E+00   0.7369588E+00   0.7370479E+00   0.7360553E+00   0.7384093E+00   0.7423888E+00   0.7464854E+00
   0.7415840E+00   0.7452878E+00   0.7374398E+00   0.7413632E+00   0.7392429E+00   0.7386661E+00   0.7427993E+00   0.7459303E+00   0.7425242E+00   0.7444278E+00
   0.7427325E+00   0.7449043E+00   0.7432098E+00   0.7444570E+00   0.7476314E+00   0.7432595E+00   0.7441412E+00   0.7452442E+00   0.7403463E+00   0.7379370E+00
  -0.3854218E-01   0.3787956E-01  -0.4893274E-03  -0.2010362E-03   0.1027806E-02  -0.4632493E-02   0.3399860E-01  -0.3490620E-01  -0.2500198E-01   0.2389264E-01
   0.3229092E-01   0.1258114E-01  -0.6978972E-03  -0.3084382E-03  -0.1394808E-01  -0.3162391E-01  -0.3212532E-02  -0.4105643E-03   0.8868118E-02   0.2985212E-01
  -0.2328268E-01   0.2192694E-01  -0.3099319E-01  -0.1237802E-01   0.1258261E-01   0.3048121E-01  -0.1707382E-01  -0.3284518E-01  -0.3079208E-01  -0.1218999E-01
   0.3162341E-01   0.1319461E-01   0.4662852E-02   0.1325584E-01  -0.2395253E-02  -0.1645119E-01  -0.2129903E-02   0.1102717E-01   0.3599403E-02  -0.1483582E-01
   0.9198388E-02   0.1189726E-01  -0.1493051E-01  -0.1845900E-01  -0.1294235E-01  -0.5778683E-02   0.1395619E-01   0.5312955E-03   0.1651599E-01  -0.1078095E-01
  -0.1510197E-01   0.1209679E-01  -0.1792008E-01  -0.2660534E-02   0.1280746E-01   0.5100508E-02   0.2034333E-01   0.1833578E-02  -0.1878941E-01  -0.2111518E-02
  -0.8049809E-03   0.7698908E-03   0.1685900E-01  -0.4337319E-02  -0.9409415E-03  -0.1154226E-01   0.2257415E-02  -0.1685962E-02  -0.1124750E-02  -0.1253975E-02
   0.6699407E+00   0.6696051E+00   0.6678369E+00   0.6673565E+00   0.6650211E+00   0.6660671E+00   0.6703142E+00   0.6695467E+00   0.6703743E+00   0.6702072E+00
   0.6640352E+00   0.6649791E+00   0.6680885E+00   0.6676625E+00   0.6648943E+00   0.6634148E+00   0.6665011E+00   0.6653184E+00   0.6642039E+00   0.6651715E+00
   0.6701784E+00   0.6706601E+00   0.6629828E+00   0.6635994E+00   0.6704890E+00   0.6743565E+00   0.6694527E+00   0.6748072E+00   0.6746364E+00   0.6715863E+00
   0.6735158E+00   0.6690678E+00   0.6650604E+00   0.6624235E+00   0.6636212E+00   0.6618674E+00   0.6624991E+00   0.6612924E+00   0.6637763E+00   0.6600885E+00
   0.6699153E+00   0.6658397E+00   0.6691535E+00   0.6667464E+00   0.6758138E+00   0.6758158E+00   0.6767776E+00   0.6743526E+00   0.6697657E+00   0.6653144E+00
   0.6706901E+00   0.6666332E+00   0.6751751E+00   0.6710988E+00   0.6733171E+00   0.6740522E+00   0.6692050E+00   0.6660215E+00   0.6695556E+00   0.6676997E+00
   0.6695878E+00   0.6671709E+00   0.6688460E+00   0.6676563E+00   0.6641132E+00   0.6689037E+00   0.6680185E+00   0.6667895E+00   0.6722248E+00   0.6748685E+00
      1      1      1      1      1      1      1      1      1      1
      1      1      1      1      1      1      1      1      1      1
      1      1      1      1      1      1      1      1      1      1
      1      1      1      1      1      1      1      1      1      1
      1      1      1      1      1      1      1      1      1      1
      1      1      1      1      1      1      1      1      1      1
      1      1      1      1      1      1      1      1      1      1
      1      1      1      1      1      1      1      1      1      1
      1      1      1      1      1      1      1      1      1      1
      1      1      1      1      1      1      1      1      1      1
      1      1      1      1      1      1      1      1      1      1
      1      1      1      1      1      1      1      1      1      1
      1      1      1      1      1      1      1      1      1      1
      1      1      1      1      1      1      1      1      1      1
      1      1      1      1      1      1      1      1      1      1
      1      1      1      1      1      1      1      1      1      1
      1      1      1      1      1      1      1      1      1      1
      1      1      1      1      1      1      1      1      1      1
      1      1      1      1      1      1      1      1      1      1
      1      1      1      1      1      1      1      1      1      1
     57     11     10      2
     57     33     10     11
     56      9     10     33
     59     36      9     33
     59      1      9     16
     61     34     12     13
     57     34     33     11
     52     34     11     12
     61     35     34     13
     58     36     33     34
     60     14     15     35
     59     36     16      9
     58     36     34     35
     60     36     35     15
     44     36     15     16
     48     14     35     13
     64     62     38     42
     65     40     37     38
     19     42     38     20
     18     54     37     17
     67     32      5     24
     63     39     38     20
     66     50     40     23
     70     60     48     47
     46     21     39     22
     63     46     39     22
     67     65     40     37
     29     21     23     66
     66     23     40     21
     63     39     20     22
     64     19     38     17
     65     40     38     39
     60     48     14     35
     60     25     14     48
     63     62     42     38
     64     38     37     17
     64     19     42     38
     64     53     43     27
     64     54     27     17
     64     19     27     43
     60     44     36     15
     59     44     28     16
     59     53      9     28
     66     21     40     39
     61     30     12     52
     50     23     24     40
     63     42     41     26
     66     51     23     29
     60     58     35     36
     25     47     41     26
     63     62     41     42
     63     42     26     20
     63     47     22     26
     61     48     35     13
     60     25     47     41
     67     40     24     37
     61     52     12     34
     67     18     37     24
     53     28     43     27
     66     46     45     29
     70     46     45     66
     30     51     45     29
     68     52     50     51
     66     46     29     21
     57     52     34     11
     61     30     51     45
     70     45     48     61
     68     52     49     50
     59     44     43     28
     67     18     32     55
     67     50     49     32
     31     55     49     32
     67     18     54     37
     69     67     64     65
     69     54     67     55
     56     59      9     33
     57     31     10     56
     57     31     55     49
     64     27      6     17
     67     50     32     24
     60     25     41     15
     61     30     45     13
     57     31     49     11
     57     52     11     49
     57     56     10     33
     68     67     50     49
     57     31     56     55
     33     69     57     56
     57     31      2     10
     57     31     11      2
     58     57     52     34
     67     68     40     65
     60     61     48     35
     60     59     36     44
     64     65     37     38
     62     44     41     43
     66     65     39     40
     62     43     41     42
     63     66     39     46
     61     48     13     45
     61     30     52     51
     58     57     34     33
     12     30     13      3
     13     30     12     61
     69     58     67     65
     60     58     61     35
     59     33     69     58
     69     57     67     58
     58     61     35     34
     58     61     34     52
     62     60     58     61
     68     57     49     52
     59     44     16     36
     59     53     28     43
     59     58     36     33
     59     69     56     53
      9     59     56     53
     59     28      1     16
     59     28      9      1
     60     25     48     47
     60     44     15     41
     60     59     58     36
     70     66     61     62
     62     59     44     43
     62     60     59     58
     14     25     15      4
     15     25     14     60
     62     60     47     41
     62     60     41     44
     62     60     44     59
     64     59     43     53
     64     69     59     53
     70     62     60     47
     61     66     65     62
     65     66     61     68
     68     58     52     61
     67     57     55     49
     68     67     49     57
     63     65     38     39
     68     61     52     51
     57     56     69     55
     64     65     38     62
     63     66     65     39
     59     58     69     65
     67     64     37     54
     64     54     53     27
     64     62     42     43
     64     54     17     37
     64     19     43     42
     64     62     43     59
     64     19     17      6
     64     19      6     27
     59     62     65     64
     65     62     59     58
     40     50     66     68
     66     46     21     39
     66     51     50     23
     66     51     29     45
     70     63     62     47
     23     21     29      8
     70     46     47     48
     63     62     47     41
     63     42     20     38
     63     65     62     38
     63     47     26     41
     70     63     47     46
     63     66     62     65
     63     47     46     22
     67     55     32     49
     67     50     24     40
     67     57     69     55
     67     18     55     54
     67     64     65     37
     67     54     69     64
     68     67     58     65
     54     53     69     64
     67     18     24      5
     67     18      5     32
     58     65     61     68
     61     65     58     62
     61     66     51     68
     51     66     61     45
     50     51     66     68
     68     66     40     65
     68     58     57     52
     40     68     67     50
     68     67     57     58
     69     53     54     55
     57     69     33     58
     59     69     64     65
     56     53     69     55
     56     69     59     33
     22     26     20     63
     20     26     22      7
     70     63     46     66
     70     61     66     45
     70     63     66     62
     70     45     46     48
     70     62     61     60
     70     60     61     48
 ZONE T="380.0000 mT",  N=70,  E=200
 F=FEBLOCK, ET=TETRAHEDRON, VARSHARELIST =([1-3,7]=1), CONNECTIVITYSHAREZONE = 1, VARLOCATION=([7]=CELLCENTERED)
   0.7413532E+00   0.7416993E+00   0.7442820E+00   0.7447200E+00   0.7468162E+00   0.7458568E+00   0.7412591E+00   0.7419175E+00   0.7415254E+00   0.7417226E+00
   0.7469494E+00   0.7467067E+00   0.7440087E+00   0.7444004E+00   0.7467562E+00   0.7475346E+00   0.7454527E+00   0.7465253E+00   0.7474641E+00   0.7460400E+00
   0.7417584E+00   0.7413673E+00   0.7479548E+00   0.7479580E+00   0.7417305E+00   0.7376750E+00   0.7425942E+00   0.7371691E+00   0.7374104E+00   0.7407345E+00
   0.7384159E+00   0.7430283E+00   0.7467167E+00   0.7489598E+00   0.7480073E+00   0.7493886E+00   0.7490221E+00   0.7500067E+00   0.7478694E+00   0.7510066E+00
   0.7422975E+00   0.7459379E+00   0.7428997E+00   0.7449863E+00   0.7368497E+00   0.7369447E+00   0.7359423E+00   0.7383060E+00   0.7423169E+00   0.7464315E+00
   0.7414997E+00   0.7452184E+00   0.7373427E+00   0.7412878E+00   0.7391578E+00   0.7385775E+00   0.7427197E+00   0.7458559E+00   0.7424369E+00   0.7443479E+00
   0.7426401E+00   0.7448313E+00   0.7431287E+00   0.7443885E+00   0.7475681E+00   0.7431767E+00   0.7440745E+00   0.7451740E+00   0.7402585E+00   0.7378337E+00
  -0.3878846E-01   0.3821634E-01  -0.4294505E-03  -0.1530618E-03   0.1081736E-02  -0.4624497E-02   0.3427182E-01  -0.3509007E-01  -0.2513411E-01   0.2408240E-01
   0.3257180E-01   0.1272528E-01  -0.6583174E-03  -0.2739961E-03  -0.1402067E-01  -0.3181824E-01  -0.3210068E-02  -0.3813204E-03   0.8964772E-02   0.3009396E-01
  -0.2339317E-01   0.2210100E-01  -0.3117996E-01  -0.1242044E-01   0.1269995E-01   0.3072297E-01  -0.1715767E-01  -0.3305028E-01  -0.3097062E-01  -0.1223736E-01
   0.3189202E-01   0.1332434E-01   0.4726319E-02   0.1338192E-01  -0.2371123E-02  -0.1653194E-01  -0.2111780E-02   0.1112552E-01   0.3653905E-02  -0.1490626E-01
   0.9282686E-02   0.1200440E-01  -0.1500615E-01  -0.1856172E-01  -0.1298948E-01  -0.5781867E-02   0.1408770E-01   0.5664095E-03   0.1666636E-01  -0.1081466E-01
  -0.1516840E-01   0.1222370E-01  -0.1801267E-01  -0.2649836E-02   0.1291788E-01   0.5164031E-02   0.2051517E-01   0.1875972E-02  -0.1889392E-01  -0.2094129E-02
  -0.7795716E-03   0.8044435E-03   0.1700721E-01  -0.4346604E-02  -0.9216063E-03  -0.1158772E-01   0.2306130E-02  -0.1664773E-02  -0.1107429E-02  -0.1228548E-02
   0.6699932E+00   0.6696429E+00   0.6678654E+00   0.6673770E+00   0.6650296E+00   0.6660903E+00   0.6703434E+00   0.6695723E+00   0.6704538E+00   0.6702743E+00
   0.6640826E+00   0.6650317E+00   0.6681696E+00   0.6677335E+00   0.6649501E+00   0.6634603E+00   0.6665508E+00   0.6653569E+00   0.6642417E+00   0.6652208E+00
   0.6702591E+00   0.6707355E+00   0.6630170E+00   0.6636298E+00   0.6705778E+00   0.6744565E+00   0.6695218E+00   0.6748995E+00   0.6747345E+00   0.6716865E+00
   0.6735911E+00   0.6691273E+00   0.6651255E+00   0.6624803E+00   0.6636862E+00   0.6619240E+00   0.6625417E+00   0.6613367E+00   0.6638358E+00   0.6601265E+00
   0.6700061E+00   0.6659074E+00   0.6692346E+00   0.6668215E+00   0.6759318E+00   0.6759283E+00   0.6768977E+00   0.6744657E+00   0.6698417E+00   0.6653743E+00
   0.6707817E+00   0.6667085E+00   0.6752787E+00   0.6711821E+00   0.6734084E+00   0.6741488E+00   0.6692881E+00   0.6661047E+00   0.6696495E+00   0.6677888E+00
   0.6696903E+00   0.6672523E+00   0.6689323E+00   0.6677327E+00   0.6641845E+00   0.6689949E+00   0.6680927E+00   0.6668680E+00   0.6723215E+00   0.6749814E+00
 ZONE T="360.0000 mT",  N=70,  E=200
 F=FEBLOCK, ET=TETRAHEDRON, VARSHARELIST =([1-3,7]=1), CONNECTIVITYSHAREZONE = 1, VARLOCATION=([7]=CELLCENTERED)
   0.7409189E+00   0.7412732E+00   0.7438024E+00   0.7442356E+00   0.7463794E+00   0.7454202E+00   0.7408046E+00   0.7414636E+00   0.7411262E+00   0.7413245E+00
   0.7465715E+00   0.7463092E+00   0.7435766E+00   0.7439619E+00   0.7463505E+00   0.7471443E+00   0.7450346E+00   0.7461131E+00   0.7470772E+00   0.7456562E+00
   0.7413536E+00   0.7409691E+00   0.7475818E+00   0.7475662E+00   0.7412876E+00   0.7372352E+00   0.7421699E+00   0.7367316E+00   0.7369707E+00   0.7402873E+00
   0.7379923E+00   0.7426018E+00   0.7463528E+00   0.7485929E+00   0.7476171E+00   0.7490199E+00   0.7486462E+00   0.7496484E+00   0.7475078E+00   0.7506538E+00
   0.7418895E+00   0.7455569E+00   0.7425014E+00   0.7445913E+00   0.7364063E+00   0.7365226E+00   0.7355005E+00   0.7378618E+00   0.7419168E+00   0.7460499E+00
   0.7410901E+00   0.7448318E+00   0.7369186E+00   0.7408682E+00   0.7387400E+00   0.7381719E+00   0.7423350E+00   0.7454794E+00   0.7420496E+00   0.7439514E+00
   0.7422388E+00   0.7444485E+00   0.7427424E+00   0.7439985E+00   0.7472036E+00   0.7427871E+00   0.7436804E+00   0.7447904E+00   0.7398553E+00   0.7374102E+00
  -0.3922419E-01   0.3837188E-01  -0.5384851E-03  -0.3370164E-03   0.9126713E-03  -0.4786199E-02   0.3436538E-01  -0.3546098E-01  -0.2543421E-01   0.2410469E-01
   0.3270336E-01   0.1272729E-01  -0.7703296E-03  -0.4267790E-03  -0.1427903E-01  -0.3219104E-01  -0.3371913E-02  -0.5460867E-03   0.8913120E-02   0.3018931E-01
  -0.2366216E-01   0.2212135E-01  -0.3153423E-01  -0.1265319E-01   0.1263493E-01   0.3080410E-01  -0.1739585E-01  -0.3341986E-01  -0.3130191E-01  -0.1242904E-01
   0.3198951E-01   0.1326262E-01   0.4634292E-02   0.1336343E-01  -0.2509190E-02  -0.1677838E-01  -0.2260827E-02   0.1107807E-01   0.3557324E-02  -0.1514023E-01
   0.9207901E-02   0.1196755E-01  -0.1523066E-01  -0.1882770E-01  -0.1318423E-01  -0.5937244E-02   0.1406018E-01   0.4402878E-03   0.1665492E-01  -0.1101156E-01
  -0.1538159E-01   0.1220919E-01  -0.1826072E-01  -0.2803345E-02   0.1285892E-01   0.5066627E-02   0.2053684E-01   0.1770569E-02  -0.1914928E-01  -0.2235660E-02
  -0.8963618E-03   0.6919804E-03   0.1700948E-01  -0.4501444E-02  -0.1052502E-02  -0.1177996E-01   0.2189575E-02  -0.1795290E-02  -0.1247518E-02  -0.1355757E-02
   0.6704481E+00   0.6701057E+00   0.6683994E+00   0.6679171E+00   0.6655200E+00   0.6665777E+00   0.6708409E+00   0.6700554E+00   0.6708838E+00   0.6707137E+00
   0.6645009E+00   0.6654777E+00   0.6686503E+00   0.6682219E+00   0.6653999E+00   0.6638819E+00   0.6670173E+00   0.6658191E+00   0.6646775E+00   0.6656467E+00
   0.6706973E+00   0.6711747E+00   0.6634207E+00   0.6640668E+00   0.6710686E+00   0.6749336E+00   0.6699860E+00   0.6753590E+00   0.6751995E+00   0.6721757E+00
   0.6740505E+00   0.6696018E+00   0.6655344E+00   0.6628952E+00   0.6641253E+00   0.6623350E+00   0.6629659E+00   0.6617436E+00   0.6642435E+00   0.6605223E+00
   0.6704590E+00   0.6663345E+00   0.6696713E+00   0.6672551E+00   0.6764110E+00   0.6763869E+00   0.6773783E+00   0.6749517E+00   0.6702851E+00   0.6657989E+00
   0.6712293E+00   0.6671406E+00   0.6757348E+00   0.6716446E+00   0.6738678E+00   0.6745937E+00   0.6697141E+00   0.6665263E+00   0.6700714E+00   0.6682300E+00
   0.6701349E+00   0.6676795E+00   0.6693612E+00   0.6681661E+00   0.6645943E+00   0.6694240E+00   0.6685317E+00   0.6672961E+00   0.6727649E+00   0.6754438E+00
 ZONE T="340.0000 mT",  N=70,  E=200
 F=FEBLOCK, ET=TETRAHEDRON, VARSHARELIST =([1-3,7]=1), CONNECTIVITYSHAREZONE = 1, VARLOCATION=([7]=CELLCENTERED)
   0.7406733E+00   0.7410380E+00   0.7435567E+00   0.7439911E+00   0.7461617E+00   0.7451957E+00   0.7405645E+00   0.7412271E+00   0.7408871E+00   0.7410920E+00
   0.7463544E+00   0.7460845E+00   0.7433215E+00   0.7437090E+00   0.7461199E+00   0.7469238E+00   0.7448031E+00   0.7458897E+00   0.7468660E+00   0.7454366E+00
   0.7411114E+00   0.7407322E+00   0.7473749E+00   0.7473560E+00   0.7410228E+00   0.7369627E+00   0.7419248E+00   0.7364646E+00   0.7367000E+00   0.7400156E+00
   0.7377399E+00   0.7423605E+00   0.7461387E+00   0.7483796E+00   0.7473898E+00   0.7488066E+00   0.7484371E+00   0.7494466E+00   0.7472978E+00   0.7504571E+00
   0.7416395E+00   0.7453320E+00   0.7422616E+00   0.7443561E+00   0.7361264E+00   0.7362562E+00   0.7352195E+00   0.7375838E+00   0.7416783E+00   0.7458288E+00
   0.7408397E+00   0.7446003E+00   0.7366550E+00   0.7406179E+00   0.7384856E+00   0.7379216E+00   0.7420973E+00   0.7452508E+00   0.7418028E+00   0.7437058E+00
   0.7419844E+00   0.7442203E+00   0.7425025E+00   0.7437638E+00   0.7469813E+00   0.7425459E+00   0.7434446E+00   0.7445601E+00   0.7396071E+00   0.7371423E+00
  -0.3957592E-01   0.3862056E-01  -0.5666040E-03  -0.4084724E-03   0.8509637E-03  -0.4868932E-02   0.3454992E-01  -0.3574643E-01  -0.2565800E-01   0.2420974E-01
   0.3291113E-01   0.1279864E-01  -0.8108649E-03  -0.4906699E-03  -0.1445159E-01  -0.3248402E-01  -0.3457386E-02  -0.6185892E-03   0.8932244E-02   0.3035790E-01
  -0.2385891E-01   0.2221714E-01  -0.3181370E-01  -0.1279658E-01   0.1265820E-01   0.3096556E-01  -0.1756411E-01  -0.3371677E-01  -0.3156535E-01  -0.1255456E-01
   0.3217352E-01   0.1329443E-01   0.4616250E-02   0.1341471E-01  -0.2570726E-02  -0.1694878E-01  -0.2331255E-02   0.1110003E-01   0.3532515E-02  -0.1529918E-01
   0.9208969E-02   0.1199952E-01  -0.1538746E-01  -0.1901926E-01  -0.1331096E-01  -0.6021376E-02   0.1410962E-01   0.3902567E-03   0.1672289E-01  -0.1113295E-01
  -0.1552747E-01   0.1226321E-01  -0.1843816E-01  -0.2879857E-02   0.1288188E-01   0.5045414E-02   0.2063053E-01   0.1735182E-02  -0.1933945E-01  -0.2303713E-02
  -0.9480203E-03   0.6483624E-03   0.1708199E-01  -0.4591566E-02  -0.1112397E-02  -0.1190695E-01   0.2148149E-02  -0.1853578E-02  -0.1312673E-02  -0.1410475E-02
   0.6706988E+00   0.6703515E+00   0.6686726E+00   0.6681894E+00   0.6657642E+00   0.6668281E+00   0.6710965E+00   0.6703018E+00   0.6711394E+00   0.6709669E+00
   0.6647346E+00   0.6657283E+00   0.6689339E+00   0.6685033E+00   0.6656547E+00   0.6641156E+00   0.6672754E+00   0.6660692E+00   0.6649146E+00   0.6658849E+00
   0.6709581E+00   0.6714329E+00   0.6636404E+00   0.6643006E+00   0.6713606E+00   0.6752238E+00   0.6702530E+00   0.6756353E+00   0.6754826E+00   0.6724725E+00
   0.6743179E+00   0.6698687E+00   0.6657746E+00   0.6631350E+00   0.6643808E+00   0.6625718E+00   0.6632017E+00   0.6619717E+00   0.6644799E+00   0.6607421E+00
   0.6707354E+00   0.6665855E+00   0.6699335E+00   0.6675120E+00   0.6767132E+00   0.6766761E+00   0.6776823E+00   0.6752555E+00   0.6705472E+00   0.6660446E+00
   0.6715024E+00   0.6673979E+00   0.6760173E+00   0.6719203E+00   0.6741462E+00   0.6748676E+00   0.6699746E+00   0.6667820E+00   0.6703392E+00   0.6685031E+00
   0.6704165E+00   0.6679339E+00   0.6696255E+00   0.6684268E+00   0.6648441E+00   0.6696894E+00   0.6687940E+00   0.6675529E+00   0.6730376E+00   0.6757361E+00
 ZONE T="320.0000 mT",  N=70,  E=200
 F=FEBLOCK, ET=TETRAHEDRON, VARSHARELIST =([1-3,7]=1), CONNECTIVITYSHAREZONE = 1, VARLOCATION=([7]=CELLCENTERED)
   0.7403759E+00   0.7407517E+00   0.7432516E+00   0.7436855E+00   0.7458861E+00   0.7449147E+00   0.7402705E+00   0.7409355E+00   0.7405994E+00   0.7408113E+00
   0.7460891E+00   0.7458085E+00   0.7430124E+00   0.7434009E+00   0.7458363E+00   0.7466531E+00   0.7445173E+00   0.7456116E+00   0.7466035E+00   0.7451684E+00
   0.7408205E+00   0.7404475E+00   0.7471187E+00   0.7470927E+00   0.7407041E+00   0.7366398E+00   0.7416269E+00   0.7361465E+00   0.7363785E+00   0.7396909E+00
   0.7374374E+00   0.7420655E+00   0.7458778E+00   0.7481181E+00   0.7471111E+00   0.7485441E+00   0.7481768E+00   0.7491959E+00   0.7470406E+00   0.7502117E+00
   0.7413396E+00   0.7450586E+00   0.7419720E+00   0.7440703E+00   0.7357948E+00   0.7359408E+00   0.7348873E+00   0.7372530E+00   0.7413901E+00   0.7455580E+00
   0.7405393E+00   0.7443198E+00   0.7363408E+00   0.7403153E+00   0.7381806E+00   0.7376232E+00   0.7418135E+00   0.7449728E+00   0.7415119E+00   0.7434119E+00
   0.7416822E+00   0.7439388E+00   0.7422172E+00   0.7434796E+00   0.7467149E+00   0.7422561E+00   0.7431586E+00   0.7442802E+00   0.7393088E+00   0.7368246E+00
  -0.3995790E-01   0.3884781E-01  -0.6194227E-03  -0.5126105E-03   0.7580812E-03  -0.4976365E-02   0.3471059E-01  -0.3606244E-01  -0.2590954E-01   0.2429181E-01
   0.3309925E-01   0.1284960E-01  -0.8749917E-03  -0.5829947E-03  -0.1465402E-01  -0.3280671E-01  -0.3568329E-02  -0.7205268E-03   0.8929170E-02   0.3050608E-01
  -0.2408224E-01   0.2229046E-01  -0.3212199E-01  -0.1296991E-01   0.1265439E-01   0.3110442E-01  -0.1775748E-01  -0.3404168E-01  -0.3185530E-01  -0.1270357E-01
   0.3233492E-01   0.1329858E-01   0.4574415E-02   0.1344467E-01  -0.2658113E-02  -0.1714683E-01  -0.2428283E-02   0.1109958E-01   0.3483562E-02  -0.1548534E-01
   0.9185566E-02   0.1200970E-01  -0.1556937E-01  -0.1923858E-01  -0.1346230E-01  -0.6130371E-02   0.1413514E-01   0.3146510E-03   0.1676698E-01  -0.1128028E-01
  -0.1569799E-01   0.1229627E-01  -0.1864177E-01  -0.2982568E-02   0.1287922E-01   0.5000207E-02   0.2070452E-01   0.1675452E-02  -0.1955170E-01  -0.2396088E-02
  -0.1020923E-02   0.5804267E-03   0.1713353E-01  -0.4702874E-02  -0.1197119E-02  -0.1205615E-01   0.2084354E-02  -0.1937372E-02  -0.1404434E-02  -0.1490511E-02
   0.6710044E+00   0.6706547E+00   0.6690117E+00   0.6685294E+00   0.6660731E+00   0.6671411E+00   0.6714126E+00   0.6706073E+00   0.6714471E+00   0.6712738E+00
   0.6650229E+00   0.6660365E+00   0.6692771E+00   0.6688458E+00   0.6659681E+00   0.6644042E+00   0.6675936E+00   0.6663804E+00   0.6652094E+00   0.6661782E+00
   0.6712712E+00   0.6717445E+00   0.6639141E+00   0.6645933E+00   0.6717122E+00   0.6755697E+00   0.6705776E+00   0.6759656E+00   0.6758195E+00   0.6728269E+00
   0.6746411E+00   0.6701955E+00   0.6660671E+00   0.6634294E+00   0.6646939E+00   0.6628632E+00   0.6634950E+00   0.6622555E+00   0.6647693E+00   0.6610164E+00
   0.6710672E+00   0.6668909E+00   0.6702501E+00   0.6678243E+00   0.6770707E+00   0.6770181E+00   0.6780419E+00   0.6756167E+00   0.6708649E+00   0.6663453E+00
   0.6718297E+00   0.6677101E+00   0.6763540E+00   0.6722532E+00   0.6744802E+00   0.6751940E+00   0.6702866E+00   0.6670927E+00   0.6706548E+00   0.6688296E+00
   0.6707507E+00   0.6682475E+00   0.6699404E+00   0.6687420E+00   0.6651431E+00   0.6700079E+00   0.6691121E+00   0.6678647E+00   0.6733651E+00   0.6760823E+00
 ZONE T="300.0000 mT",  N=70,  E=200
 F=FEBLOCK, ET=TETRAHEDRON, VARSHARELIST =([1-3,7]=1), CONNECTIVITYSHAREZONE = 1, VARLOCATION=([7]=CELLCENTERED)
   0.7400012E+00   0.7403954E+00   0.7428640E+00   0.7432891E+00   0.7455241E+00   0.7445549E+00   0.7399019E+00   0.7405619E+00   0.7402405E+00   0.7404634E+00
   0.7457581E+00   0.7454622E+00   0.7426274E+00   0.7430122E+00   0.7454730E+00   0.7463072E+00   0.7441549E+00   0.7452536E+00   0.7462703E+00   0.7448334E+00
   0.7404586E+00   0.7400958E+00   0.7467886E+00   0.7467501E+00   0.7403070E+00   0.7362464E+00   0.7412546E+00   0.7357533E+00   0.7359827E+00   0.7392920E+00
   0.7370646E+00   0.7416922E+00   0.7455503E+00   0.7477895E+00   0.7467582E+00   0.7482092E+00   0.7478428E+00   0.7488768E+00   0.7467161E+00   0.7498946E+00
   0.7409679E+00   0.7447174E+00   0.7416114E+00   0.7437100E+00   0.7353900E+00   0.7355554E+00   0.7344822E+00   0.7368462E+00   0.7410309E+00   0.7452138E+00
   0.7401674E+00   0.7439712E+00   0.7359538E+00   0.7399381E+00   0.7378032E+00   0.7372564E+00   0.7414646E+00   0.7446247E+00   0.7411558E+00   0.7430478E+00
   0.7413120E+00   0.7435812E+00   0.7418684E+00   0.7431250E+00   0.7463864E+00   0.7418958E+00   0.7427982E+00   0.7439296E+00   0.7389390E+00   0.7364364E+00
  -0.4047963E-01   0.3894344E-01  -0.8170532E-03  -0.7731009E-03   0.5155991E-03  -0.5223391E-02   0.3473130E-01  -0.3652470E-01  -0.2628684E-01   0.2424847E-01
   0.3316925E-01   0.1277791E-01  -0.1067719E-02  -0.8130271E-03  -0.1498970E-01  -0.3326046E-01  -0.3813157E-02  -0.9625157E-03   0.8800356E-02   0.3053441E-01